         Total DFT energy =     -420.998659359486

 Output coordinates in angstroms (scale by  1.889725989 to convert to a.u.)

  No.       Tag          Charge          X              Y              Z
 ---- ---------------- ---------- -------------- -------------- --------------
    1 H                    1.0000    -1.90503042     0.51551861    -0.48818511
    2 N                    7.0000    -2.77825642     1.03871462    -0.57025385
    3 H                    1.0000    -3.08814921     0.95637440    -1.53088576
    4 H                    1.0000    -3.47339635     0.56715287    -0.00462613

         Total DFT energy =     -364.399586547638
         Total DFT energy =     -364.399679853124
         Total DFT energy =      -56.589969838090
         Total DFT energy =      -56.590065415964

                       DFT Final Molecular Orbital Analysis
                       ------------------------------------

 Vector    1  Occ=2.000000D+00  E=-1.429993D+01

 Vector   25  Occ=0.000000D+00  E= 1.068579D-01

 Vector   26  Occ=0.000000D+00  E= 1.111248D-01

 Vector   27  Occ=0.000000D+00  E= 1.159413D-01

 Vector   28  Occ=0.000000D+00  E= 1.187226D-01

 Vector   29  Occ=0.000000D+00  E= 1.209822D-01

 Vector   30  Occ=0.000000D+00  E= 1.223987D-01

 Vector   31  Occ=0.000000D+00  E= 1.306640D-01

 Vector   32  Occ=0.000000D+00  E= 1.346636D-01

 Vector   33  Occ=0.000000D+00  E= 1.369088D-01

 Vector   34  Occ=0.000000D+00  E= 1.410504D-01

 Vector   35  Occ=0.000000D+00  E= 1.501137D-01

 Vector   36  Occ=0.000000D+00  E= 1.524817D-01

 Vector   37  Occ=0.000000D+00  E= 1.605680D-01

 Vector   38  Occ=0.000000D+00  E= 1.634694D-01

 Vector   39  Occ=0.000000D+00  E= 1.690941D-01

 Vector   40  Occ=0.000000D+00  E= 1.716721D-01

 Vector   41  Occ=0.000000D+00  E= 1.795734D-01

 Vector   42  Occ=0.000000D+00  E= 1.820283D-01

 Vector   43  Occ=0.000000D+00  E= 1.879639D-01

 Vector   44  Occ=0.000000D+00  E= 1.931077D-01

 Vector   45  Occ=0.000000D+00  E= 2.012674D-01

 Vector   46  Occ=0.000000D+00  E= 2.028875D-01

 Vector   47  Occ=0.000000D+00  E= 2.123057D-01

 Vector   48  Occ=0.000000D+00  E= 2.265256D-01

 Vector   49  Occ=0.000000D+00  E= 2.313316D-01

 Vector   50  Occ=0.000000D+00  E= 2.397649D-01

 Vector   51  Occ=0.000000D+00  E= 2.413462D-01

 Vector   52  Occ=0.000000D+00  E= 2.445376D-01

 Vector   53  Occ=0.000000D+00  E= 2.489749D-01

 Vector   54  Occ=0.000000D+00  E= 2.597388D-01

 Vector   55  Occ=0.000000D+00  E= 2.616747D-01

 Vector   56  Occ=0.000000D+00  E= 2.693975D-01

 Vector   57  Occ=0.000000D+00  E= 2.717654D-01

 Vector   58  Occ=0.000000D+00  E= 2.760587D-01

 Vector   59  Occ=0.000000D+00  E= 2.864995D-01

 Vector   60  Occ=0.000000D+00  E= 2.909042D-01

 Vector   61  Occ=0.000000D+00  E= 2.957362D-01

 Vector   62  Occ=0.000000D+00  E= 2.997231D-01

 Vector   63  Occ=0.000000D+00  E= 3.042685D-01

 Vector   64  Occ=0.000000D+00  E= 3.109672D-01

 Vector   65  Occ=0.000000D+00  E= 3.133779D-01

 Vector   66  Occ=0.000000D+00  E= 3.200657D-01

 Vector   67  Occ=0.000000D+00  E= 3.253383D-01

 Vector   68  Occ=0.000000D+00  E= 3.305348D-01

 Vector   69  Occ=0.000000D+00  E= 3.368728D-01

 Vector   70  Occ=0.000000D+00  E= 3.393070D-01

 Vector   71  Occ=0.000000D+00  E= 3.439356D-01

 Vector   72  Occ=0.000000D+00  E= 3.480445D-01

 Vector   73  Occ=0.000000D+00  E= 3.511109D-01

 Vector   74  Occ=0.000000D+00  E= 3.545443D-01

 Vector   75  Occ=0.000000D+00  E= 3.552810D-01

 Vector   76  Occ=0.000000D+00  E= 3.658975D-01

 Vector   77  Occ=0.000000D+00  E= 3.670430D-01

 Vector   78  Occ=0.000000D+00  E= 3.743476D-01

 Vector   79  Occ=0.000000D+00  E= 3.797907D-01

 Vector   80  Occ=0.000000D+00  E= 3.830445D-01

 Vector   81  Occ=0.000000D+00  E= 3.869622D-01

 Vector   82  Occ=0.000000D+00  E= 3.948902D-01

 Vector   83  Occ=0.000000D+00  E= 3.987791D-01

 Vector   84  Occ=0.000000D+00  E= 4.045672D-01

 Vector   85  Occ=0.000000D+00  E= 4.114256D-01

 Vector   86  Occ=0.000000D+00  E= 4.178321D-01

 Vector   87  Occ=0.000000D+00  E= 4.224309D-01

 Vector   88  Occ=0.000000D+00  E= 4.281909D-01

 Vector   89  Occ=0.000000D+00  E= 4.291673D-01

 Vector   90  Occ=0.000000D+00  E= 4.352013D-01

 Vector   91  Occ=0.000000D+00  E= 4.405248D-01

 Vector   92  Occ=0.000000D+00  E= 4.440532D-01

 Vector   93  Occ=0.000000D+00  E= 4.516273D-01

 Vector   94  Occ=0.000000D+00  E= 4.539472D-01

 Vector   95  Occ=0.000000D+00  E= 4.557373D-01

 Vector   96  Occ=0.000000D+00  E= 4.613954D-01

 Vector   97  Occ=0.000000D+00  E= 4.659195D-01

 Vector   98  Occ=0.000000D+00  E= 4.755992D-01

 Vector   99  Occ=0.000000D+00  E= 4.825315D-01

 Vector  100  Occ=0.000000D+00  E= 4.853242D-01

 Vector  101  Occ=0.000000D+00  E= 4.882052D-01

 Vector  102  Occ=0.000000D+00  E= 4.939770D-01

 Vector  103  Occ=0.000000D+00  E= 4.994934D-01

 Vector  104  Occ=0.000000D+00  E= 5.026619D-01

     Multipole analysis of the density
     ---------------------------------

     L   x y z        total         alpha         beta         nuclear
     -   - - -        -----         -----         ----         -------
     0   0 0 0      0.000000     -5.000000     -5.000000     10.000000

     1   1 0 0     -0.069698     26.340407     26.340407    -52.750512
     1   0 1 0     -0.562690     -9.078065     -9.078065     17.593440
     1   0 0 1     -0.162428      5.602585      5.602585    -11.367597

     2   2 0 0     -4.023354   -143.535187   -143.535187    283.047020
     2   1 1 0      2.589773     47.908277     47.908277    -93.226781
     2   1 0 1      0.870086    -29.497367    -29.497367     59.864820
     2   0 2 0     -8.856351    -20.595402    -20.595402     32.334453
     2   0 1 1     -0.241762     10.350746     10.350746    -20.943254

 Total times  cpu:    22953.3s     wall:    23004.7s
