 Gaussian 09, Revision D.01,
 Gaussian 09:  AS64L-G09RevD.01 24-Apr-2013

 ----------------------------------------------------------------------
 #p b3lyp/gen pseudo=read nosymm scf(maxcycle=100,conver=6,xqc) iop(4/5
 =1,9/40=2) EmpiricalDispersion=GD3 scrf(solvent=Acetonitrile) td(nstat
 es=70) geom(allcheck)
 ----------------------------------------------------------------------

 Structure from the checkpoint file:  "RuRh_CH3_CO2F_model2_PCM_CH3CN_Opt-TD.chk"
 ----------------------------
 RuRh_CH3_CO2F_model2 complex
 ----------------------------
 Charge =  2 Multiplicity = 1

                          Input orientation:
 ---------------------------------------------------------------------
 Center     Atomic      Atomic             Coordinates (Angstroms)
 Number     Number       Type             X           Y           Z
 ---------------------------------------------------------------------
      1         44           0        0.345334   -3.244504   -1.926495
      2          7           0        1.289130   -2.175697   -3.463596
      3          7           0        1.969832   -2.394217   -0.917399
      4          6           0        0.871838   -2.121891   -4.742930
      5          6           0        1.545826   -1.396566   -5.719989
      6          6           0        2.699663   -0.698333   -5.359994
      7          6           0        3.137187   -0.752776   -4.038281
      8          6           0        2.417213   -1.501029   -3.101085
      9          6           0        2.794777   -1.619417   -1.678557
     10          6           0        3.915502   -0.999348   -1.116741
     11          6           0        4.191899   -1.170738    0.238036
     12          6           0        3.338464   -1.963098    1.007487
     13          6           0        2.240505   -2.555577    0.392083
     14          1           0       -0.031085   -2.673771   -4.974229
     15          1           0        1.166728   -1.384381   -6.736025
     16          1           0        3.251439   -0.119620   -6.093691
     17          1           0        4.030058   -0.215029   -3.744029
     18          1           0        4.569057   -0.388210   -1.726843
     19          1           0        5.059163   -0.693095    0.682374
     20          1           0        3.512335   -2.125311    2.065627
     21          1           0        1.553153   -3.181946    0.947682
     22          7           0       -0.878210   -1.684551   -1.254065
     23          7           0       -0.563994   -4.109558   -0.247776
     24          6           0       -0.971867   -0.469479   -1.827380
     25          6           0       -1.811168    0.526047   -1.337774
     26          6           0       -2.584142    0.255329   -0.207490
     27          6           0       -2.487838   -0.998586    0.392156
     28          6           0       -1.624781   -1.958689   -0.145885
     29          6           0       -1.453011   -3.314412    0.412975
     30          6           0       -2.131862   -3.782738    1.542636
     31          6           0       -1.900430   -5.079065    1.997986
     32          6           0       -0.990169   -5.884639    1.311751
     33          6           0       -0.345222   -5.362281    0.195405
     34          1           0       -0.356386   -0.307366   -2.703841
     35          1           0       -1.851503    1.487576   -1.837806
     36          1           0       -3.251807    1.006036    0.202833
     37          1           0       -3.080854   -1.222733    1.270386
     38          1           0       -2.834607   -3.145267    2.064716
     39          1           0       -2.422512   -5.450890    2.873696
     40          1           0       -0.776938   -6.899868    1.628156
     41          1           0        0.373859   -5.947985   -0.364369
     42          7           0       -1.117790   -4.160435   -3.125663
     43          7           0        1.363259   -4.970166   -2.564512
     44          6           0       -2.357234   -3.715448   -3.375530
     45          6           0       -3.253654   -4.418641   -4.187663
     46          6           0       -2.859166   -5.619996   -4.759732
     47          6           0       -1.564161   -6.105090   -4.506844
     48          6           0       -0.722228   -5.342532   -3.678792
     49          6           0        0.626582   -5.779871   -3.377889
     50          6           0        1.132427   -6.982909   -3.900340
     51          6           0        2.449211   -7.346390   -3.568473
     52          6           0        3.192842   -6.511742   -2.746060
     53          6           0        2.618043   -5.331444   -2.261908
     54          1           0       -2.630666   -2.772042   -2.917712
     55          1           0       -4.244866   -4.013572   -4.359435
     56          1           0       -3.528551   -6.188501   -5.395244
     57          1           0        2.863386   -8.269315   -3.958107
     58          1           0        4.212224   -6.758297   -2.469933
     59          1           0        3.168457   -4.661327   -1.612121
     60          6           0       -1.062261   -7.362041   -5.065884
     61          6           0        0.274738   -7.800324   -4.760892
     62          6           0       -1.388498   -9.236331   -6.355768
     63          6           0       -0.043683   -9.683026   -6.040482
     64          7           0        0.754835   -8.937691   -5.243926
     65          7           0       -1.859944   -8.075371   -5.848369
     66          6           0        0.455284  -10.906185   -6.561937
     67          6           0       -2.230368  -10.009592   -7.198632
     68          6           0       -1.709675  -11.184161   -7.686363
     69          6           0       -0.391048  -11.626838   -7.370201
     70          6           0       -1.354297  -13.163887   -8.725958
     71          6           0        0.996339  -13.634214   -7.961772
     72          1           0        1.828551  -13.067688   -8.389096
     73          1           0        1.215733  -13.882054   -6.919555
     74          1           0        0.849738  -14.552703   -8.530590
     75          6           0       -3.599843  -12.075974   -9.073992
     76          1           0       -4.332505  -12.075863   -8.261973
     77          1           0       -3.699883  -11.158064   -9.659961
     78          1           0       -3.761857  -12.940931   -9.715943
     79          1           0       -3.232130   -9.662607   -7.425325
     80          1           0        1.460998  -11.227479   -6.315544
     81          7           0       -2.250863  -12.157416   -8.519535
     82          7           0       -0.227638  -12.840123   -8.028947
     83         45           0       -1.595451  -14.833607   -9.828811
     84          9           0       -1.681878  -16.590246  -10.910020
     85          6           0       -2.760779  -15.550547   -8.461852
     86          6           0       -1.281337  -13.808671  -11.440107
     87          8           0       -1.256795  -13.167605  -12.394751
     88          8           0       -3.574961  -15.892448   -7.724575
 ---------------------------------------------------------------------

 SCF Done:  E(RB3LYP) =  -2658.04894384     A.U. after   12 cycles

 Excitation energies and oscillator strengths:

 Excited state symmetry could not be determined.
 Excited State   1:      Singlet-?Sym    2.4391 eV  508.33 nm  f=0.0005  <S**2>=0.000
     205 -> 208        0.02131
     207 -> 208        0.65465
     207 -> 209       -0.19230
     207 -> 210        0.17815
     207 -> 214        0.02059
     207 -> 218       -0.01153
     207 -> 219       -0.02641
     207 -> 225       -0.01040
 This state for optimization and/or second-order correction.
 Total Energy, E(TD-HF/TD-KS) =  -2657.95930987
 Copying the excited state density for this state as the 1-particle RhoCI density.

 Excited state symmetry could not be determined.
 Excited State   2:      Singlet-?Sym    2.5865 eV  479.35 nm  f=0.0857  <S**2>=0.000
     196 -> 212        0.01698
     202 -> 212        0.02437
     205 -> 208        0.01011
     205 -> 211       -0.02999
     206 -> 208        0.68615
     206 -> 209       -0.13560
     206 -> 210        0.07001
     206 -> 214        0.01302
     206 -> 219       -0.03566
     207 -> 211       -0.03442
     207 -> 212        0.01597

 Excited state symmetry could not be determined.
 Excited State   3:      Singlet-?Sym    2.6217 eV  472.91 nm  f=0.0014  <S**2>=0.000
     197 -> 208        0.01106
     205 -> 208        0.65408
     205 -> 209       -0.17172
     205 -> 210        0.15660
     205 -> 214        0.01977
     205 -> 218       -0.01094
     205 -> 219       -0.02687
     206 -> 211       -0.01964
     207 -> 208        0.01100
     207 -> 210       -0.12191
     207 -> 225        0.01372

 Excited state symmetry could not be determined.
 Excited State   4:      Singlet-?Sym    2.6247 eV  472.37 nm  f=0.0016  <S**2>=0.000
     196 -> 210       -0.01214
     199 -> 211        0.01222
     205 -> 208        0.07447
     205 -> 209       -0.01055
     205 -> 210        0.01915
     206 -> 211       -0.02419
     207 -> 208        0.03461
     207 -> 209        0.54013
     207 -> 210        0.43521
     207 -> 211       -0.07581
     207 -> 214        0.05182
     207 -> 225       -0.01897
     207 -> 270        0.01219
     207 -> 272       -0.01227

 Excited state symmetry could not be determined.
 Excited State   5:      Singlet-?Sym    2.6359 eV  470.37 nm  f=0.0011  <S**2>=0.000
     183 -> 211       -0.01489
     189 -> 211       -0.01586
     196 -> 211       -0.01254
     205 -> 208        0.02277
     205 -> 211        0.03874
     205 -> 212        0.01140
     206 -> 208        0.03938
     206 -> 210       -0.02450
     207 -> 208       -0.03083
     207 -> 210        0.12794
     207 -> 211        0.68544
     207 -> 212        0.01330
     207 -> 216       -0.05464
     207 -> 217        0.03161
     207 -> 224       -0.02658
     207 -> 226       -0.02672
     207 -> 228        0.01341
     207 -> 231        0.01180
     207 -> 238        0.01029
     207 -> 269        0.01050
     207 -> 271        0.01481
     207 -> 274        0.01270

 Excited state symmetry could not be determined.
 Excited State   6:      Singlet-?Sym    2.6397 eV  469.70 nm  f=0.0016  <S**2>=0.000
     183 -> 210       -0.01351
     198 -> 210       -0.01400
     202 -> 209       -0.01044
     202 -> 210        0.01037
     205 -> 208        0.09266
     205 -> 209       -0.02090
     206 -> 211       -0.01919
     206 -> 212        0.01547
     207 -> 208       -0.25637
     207 -> 209       -0.40885
     207 -> 210        0.48777
     207 -> 211       -0.10990
     207 -> 219        0.04906
     207 -> 221       -0.04029
     207 -> 225       -0.02960
     207 -> 227       -0.01284
     207 -> 276       -0.01170

 Excited state symmetry could not be determined.
 Excited State   7:      Singlet-?Sym    2.7182 eV  456.12 nm  f=0.0001  <S**2>=0.000
     204 -> 208        0.70024
     204 -> 209        0.02829
     204 -> 210       -0.01702
     204 -> 214       -0.02063
     204 -> 218        0.01466
     204 -> 219        0.07511
     204 -> 221        0.02678
     204 -> 224       -0.01409
     204 -> 225       -0.01002
     204 -> 226        0.01476
     204 -> 235        0.02215

 Excited state symmetry could not be determined.
 Excited State   8:      Singlet-?Sym    2.7999 eV  442.82 nm  f=0.0004  <S**2>=0.000
     181 -> 210       -0.01579
     182 -> 211        0.01480
     195 -> 211        0.01287
     200 -> 211       -0.01056
     201 -> 211        0.04030
     205 -> 208        0.10509
     205 -> 209       -0.06900
     205 -> 210       -0.43883
     205 -> 211        0.03921
     205 -> 214       -0.02735
     205 -> 219       -0.02856
     205 -> 221        0.02224
     206 -> 209       -0.02328
     206 -> 210        0.02631
     206 -> 211        0.52896
     206 -> 216       -0.04502
     206 -> 217        0.02696
     206 -> 271        0.01061
     207 -> 209        0.01929

 Excited state symmetry could not be determined.
 Excited State   9:      Singlet-?Sym    2.8155 eV  440.37 nm  f=0.0209  <S**2>=0.000
     182 -> 209        0.01323
     195 -> 209        0.01132
     201 -> 208        0.01655
     201 -> 209        0.03843
     201 -> 210        0.02262
     205 -> 208        0.01133
     205 -> 209        0.03317
     205 -> 210       -0.01561
     205 -> 211       -0.19991
     205 -> 212       -0.01431
     205 -> 216        0.01556
     205 -> 217       -0.01487
     206 -> 208        0.07991
     206 -> 209        0.59796
     206 -> 210        0.29274
     206 -> 211        0.01670
     206 -> 214        0.04400
     206 -> 272       -0.01163
     207 -> 211        0.02009
     207 -> 212       -0.02027
     207 -> 224        0.01859
     207 -> 226        0.01589

 Excited state symmetry could not be determined.
 Excited State  10:      Singlet-?Sym    2.8308 eV  437.99 nm  f=0.0117  <S**2>=0.000
     181 -> 209        0.01801
     205 -> 208        0.20418
     205 -> 209        0.62726
     205 -> 210       -0.20241
     205 -> 211        0.01021
     205 -> 214        0.02315
     205 -> 219       -0.03532
     205 -> 221        0.03012
     206 -> 209       -0.03394
     206 -> 211       -0.12803
     206 -> 216        0.01246
     207 -> 210       -0.02156
     207 -> 218        0.01148
     207 -> 225       -0.02294

 Excited state symmetry could not be determined.
 Excited State  11:      Singlet-?Sym    2.9304 eV  423.10 nm  f=0.1993  <S**2>=0.000
     181 -> 211        0.01083
     182 -> 210       -0.01011
     195 -> 208        0.01158
     196 -> 212       -0.01079
     199 -> 218        0.01126
     200 -> 208       -0.01530
     201 -> 208        0.06010
     201 -> 209        0.01115
     201 -> 210       -0.01744
     203 -> 208        0.03382
     205 -> 208        0.01235
     205 -> 209       -0.05523
     205 -> 210       -0.11921
     205 -> 211        0.42316
     205 -> 212       -0.03456
     205 -> 216       -0.01532
     205 -> 220       -0.01212
     206 -> 208        0.12134
     206 -> 209        0.31688
     206 -> 210       -0.38907
     206 -> 211       -0.10388
     206 -> 219       -0.02033
     206 -> 221        0.01458
     207 -> 210       -0.01167
     207 -> 211       -0.04723
     207 -> 212       -0.09581
     207 -> 217        0.01580
     207 -> 220       -0.01324
     207 -> 224       -0.03334
     207 -> 226       -0.03682
     207 -> 228        0.01763
     207 -> 231        0.01666
     207 -> 234        0.01180
     207 -> 238        0.01313

 Excited state symmetry could not be determined.
 Excited State  12:      Singlet-?Sym    2.9346 eV  422.49 nm  f=0.1340  <S**2>=0.000
     181 -> 210        0.01191
     187 -> 211       -0.01017
     198 -> 218        0.02024
     199 -> 216        0.01099
     199 -> 217        0.02098
     201 -> 208        0.01565
     201 -> 211        0.02749
     205 -> 208       -0.02633
     205 -> 209        0.25193
     205 -> 210        0.46660
     205 -> 211        0.10768
     205 -> 218       -0.01069
     205 -> 219        0.01035
     206 -> 208        0.03154
     206 -> 209        0.06731
     206 -> 210       -0.10028
     206 -> 211        0.42207
     206 -> 212        0.02028
     206 -> 217        0.02528
     207 -> 209       -0.01082
     207 -> 210        0.03269
     207 -> 211       -0.01142
     207 -> 212       -0.02762
     207 -> 218        0.03409
     207 -> 224       -0.02116
     207 -> 225        0.04261
     207 -> 227        0.02435
     207 -> 233        0.01100
     207 -> 237        0.01131

 Excited state symmetry could not be determined.
 Excited State  13:      Singlet-?Sym    2.9631 eV  418.43 nm  f=0.0012  <S**2>=0.000
     186 -> 208        0.01388
     200 -> 213        0.01925
     200 -> 215        0.01640
     200 -> 222       -0.01632
     201 -> 208       -0.01061
     202 -> 208       -0.01845
     203 -> 208        0.69677
     203 -> 209        0.02883
     203 -> 210       -0.01737
     203 -> 213       -0.01732
     203 -> 214       -0.02146
     203 -> 218        0.01553
     203 -> 219        0.08049
     203 -> 221        0.03029
     203 -> 224       -0.01709
     203 -> 225       -0.01221
     203 -> 226        0.01791
     203 -> 235        0.02397
     205 -> 211       -0.01844
     206 -> 209       -0.01832
     206 -> 210        0.02081

 Excited state symmetry could not be determined.
 Excited State  14:      Singlet-?Sym    2.9904 eV  414.61 nm  f=0.0164  <S**2>=0.000
     173 -> 208       -0.02336
     173 -> 221        0.01807
     177 -> 208        0.01114
     183 -> 219       -0.01227
     189 -> 208        0.01137
     189 -> 219        0.01375
     194 -> 208        0.02436
     194 -> 219        0.01033
     195 -> 212        0.02393
     195 -> 220       -0.01442
     196 -> 208       -0.03265
     196 -> 209       -0.01229
     196 -> 210        0.01099
     200 -> 212       -0.01984
     201 -> 212        0.07000
     201 -> 220       -0.03439
     201 -> 229        0.01685
     202 -> 208        0.69537
     202 -> 209        0.01107
     202 -> 219       -0.02841
     202 -> 221       -0.02677
     202 -> 235        0.01865
     203 -> 208        0.01880
     206 -> 212       -0.04038
     173 <- 221        0.01028
     201 <- 212        0.01227
     201 <- 220       -0.01248
     202 <- 208       -0.03347
     202 <- 219       -0.01224

 Excited state symmetry could not be determined.
 Excited State  15:      Singlet-?Sym    3.0628 eV  404.80 nm  f=0.0399  <S**2>=0.000
     174 -> 225       -0.01179
     196 -> 212        0.01027
     198 -> 217        0.01175
     199 -> 218        0.01618
     201 -> 208        0.02528
     201 -> 209        0.01015
     202 -> 212        0.01382
     205 -> 210        0.02208
     205 -> 211        0.33396
     205 -> 212        0.01774
     205 -> 216        0.01527
     205 -> 217       -0.02117
     205 -> 224       -0.02082
     205 -> 226       -0.01852
     205 -> 228        0.01020
     206 -> 208       -0.02243
     206 -> 209        0.01694
     206 -> 210        0.23916
     206 -> 211       -0.01866
     206 -> 214       -0.02009
     206 -> 218        0.02076
     206 -> 225       -0.02669
     207 -> 211       -0.02124
     207 -> 212        0.55896
     207 -> 216        0.03008
     207 -> 217        0.07244
     207 -> 220        0.05108
     207 -> 229       -0.02222
     207 -> 230        0.01182
     207 -> 259        0.01052

 Excited state symmetry could not be determined.
 Excited State  16:      Singlet-?Sym    3.2133 eV  385.85 nm  f=0.0048  <S**2>=0.000
     186 -> 213        0.02928
     186 -> 222       -0.01058
     188 -> 213       -0.02418
     188 -> 215       -0.02114
     188 -> 222        0.01152
     195 -> 208       -0.01262
     195 -> 230        0.01389
     200 -> 208       -0.01406
     200 -> 230        0.01142
     201 -> 208        0.05831
     201 -> 213       -0.01593
     202 -> 212       -0.01690
     202 -> 213        0.01383
     203 -> 213        0.52523
     203 -> 215        0.28133
     203 -> 222       -0.11482
     203 -> 234        0.01402
     203 -> 236       -0.01976
     203 -> 239       -0.03250
     203 -> 243       -0.01039
     203 -> 244        0.02063
     203 -> 260       -0.01377
     203 -> 264        0.01097
     204 -> 213       -0.32410
     204 -> 215       -0.11610
     204 -> 222        0.02878
     204 -> 239        0.01291
     203 <- 222        0.01086
     204 <- 213        0.01024

 Excited state symmetry could not be determined.
 Excited State  17:      Singlet-?Sym    3.2343 eV  383.35 nm  f=0.0002  <S**2>=0.000
     151 -> 225        0.01221
     174 -> 225       -0.01952
     175 -> 224       -0.01121
     183 -> 212        0.01223
     196 -> 212        0.01458
     198 -> 217        0.01362
     199 -> 218        0.01957
     201 -> 208        0.01608
     201 -> 210        0.01190
     205 -> 210        0.02082
     205 -> 211        0.28590
     205 -> 212        0.40550
     205 -> 216        0.05759
     205 -> 217       -0.03581
     205 -> 220        0.04409
     205 -> 223       -0.01009
     205 -> 229       -0.01324
     206 -> 208       -0.02856
     206 -> 209       -0.05488
     206 -> 210        0.31121
     206 -> 211       -0.02278
     206 -> 212       -0.01510
     206 -> 214       -0.05733
     206 -> 218        0.03829
     206 -> 219       -0.02480
     206 -> 221        0.01260
     207 -> 212       -0.34612
     207 -> 216        0.05680
     207 -> 217        0.10388
     207 -> 223        0.02748
     207 -> 229        0.01855
     205 <- 211       -0.01659
     206 <- 210       -0.01806

 Excited state symmetry could not be determined.
 Excited State  18:      Singlet-?Sym    3.2677 eV  379.42 nm  f=0.1160  <S**2>=0.000
     186 -> 213        0.02125
     186 -> 215       -0.01096
     188 -> 213       -0.01487
     188 -> 222        0.01419
     195 -> 208       -0.02372
     200 -> 208        0.01834
     200 -> 224        0.01160
     200 -> 226       -0.01159
     200 -> 229       -0.01069
     200 -> 230       -0.02334
     201 -> 208       -0.12556
     202 -> 212        0.02012
     203 -> 208        0.01563
     203 -> 213        0.38014
     203 -> 215       -0.04493
     203 -> 222       -0.07824
     203 -> 236       -0.01477
     203 -> 239       -0.01023
     203 -> 244        0.01160
     204 -> 213        0.46659
     204 -> 215        0.31195
     204 -> 222       -0.07357
     204 -> 234        0.01590
     204 -> 236       -0.01230
     204 -> 239       -0.03005
     204 -> 244        0.01720
     204 -> 281        0.01267
     205 -> 211        0.02829
     205 -> 212       -0.03067
     206 -> 210        0.01118
     206 -> 212       -0.02418
     207 -> 212       -0.01150
     207 -> 217        0.01213
     203 <- 215       -0.01184
     204 <- 213       -0.02385
     204 <- 222        0.01534

 Excited state symmetry could not be determined.
 Excited State  19:      Singlet-?Sym    3.2897 eV  376.88 nm  f=0.0201  <S**2>=0.000
     190 -> 212       -0.01390
     195 -> 212        0.02338
     196 -> 208       -0.02836
     196 -> 209        0.05165
     196 -> 210       -0.05046
     200 -> 208        0.01634
     200 -> 212       -0.01686
     201 -> 212        0.06223
     202 -> 208        0.02984
     202 -> 209        0.10897
     202 -> 210       -0.09247
     203 -> 213        0.01173
     204 -> 213        0.01340
     204 -> 215        0.01288
     206 -> 211       -0.01592
     206 -> 212        0.67947
     206 -> 217        0.02402
     206 -> 220        0.03459
     206 -> 223       -0.01013
     206 -> 229       -0.02824
     206 -> 230        0.01484

 Excited state symmetry could not be determined.
 Excited State  20:      Singlet-?Sym    3.3103 eV  374.54 nm  f=0.2128  <S**2>=0.000
     174 -> 225        0.01404
     181 -> 212        0.01422
     192 -> 209       -0.01207
     195 -> 209        0.01219
     199 -> 218       -0.01422
     200 -> 208       -0.02981
     201 -> 208        0.19119
     201 -> 209        0.02694
     201 -> 210       -0.02265
     202 -> 212       -0.04207
     202 -> 220        0.01781
     203 -> 213        0.03069
     203 -> 215       -0.02216
     204 -> 213        0.05805
     204 -> 215        0.04312
     205 -> 210       -0.01297
     205 -> 211       -0.18710
     205 -> 212        0.54197
     205 -> 216       -0.04593
     205 -> 217        0.05711
     205 -> 220        0.02455
     205 -> 229       -0.02399
     205 -> 230        0.01247
     206 -> 208        0.01831
     206 -> 209        0.05789
     206 -> 210       -0.22388
     206 -> 211        0.01550
     206 -> 214        0.05776
     206 -> 218       -0.03419
     206 -> 219        0.02061
     206 -> 225        0.02005
     207 -> 211       -0.01225
     207 -> 212        0.20710
     207 -> 216       -0.05688
     207 -> 217       -0.08159
     207 -> 220       -0.01444
     207 -> 223       -0.01819
     207 -> 229       -0.01139
     205 <- 211        0.01067
     206 <- 210        0.01610

 Excited state symmetry could not be determined.
 Excited State  21:      Singlet-?Sym    3.3261 eV  372.76 nm  f=0.0294  <S**2>=0.000
     184 -> 212        0.01148
     185 -> 212        0.02084
     185 -> 259       -0.01349
     195 -> 208       -0.01459
     196 -> 208       -0.01583
     197 -> 208        0.67377
     197 -> 209        0.04256
     197 -> 210       -0.02687
     197 -> 214       -0.01942
     197 -> 219       -0.01515
     197 -> 221       -0.06487
     198 -> 208        0.01970
     200 -> 208        0.02290
     201 -> 208       -0.16368
     202 -> 212        0.05591
     202 -> 220       -0.01755
     203 -> 215        0.01498
     204 -> 213       -0.02196
     204 -> 215       -0.01796
     205 -> 208       -0.01289
     205 -> 212        0.05085
     206 -> 209        0.01648
     206 -> 210       -0.02512
     207 -> 212        0.01874
     197 <- 208       -0.01727

 Excited state symmetry could not be determined.
 Excited State  22:      Singlet-?Sym    3.3271 eV  372.65 nm  f=0.3648  <S**2>=0.000
     173 -> 212       -0.01636
     189 -> 212        0.01249
     194 -> 212        0.01018
     195 -> 208        0.04829
     195 -> 219       -0.02058
     196 -> 208       -0.01240
     197 -> 208        0.18851
     197 -> 209        0.01196
     197 -> 221       -0.01811
     200 -> 208       -0.08215
     200 -> 212        0.01553
     200 -> 230       -0.01528
     201 -> 208        0.58638
     202 -> 211        0.02274
     202 -> 212       -0.20061
     202 -> 220        0.06288
     202 -> 223       -0.01042
     202 -> 229       -0.02482
     202 -> 230        0.01121
     203 -> 213        0.02189
     203 -> 215       -0.05511
     204 -> 213        0.08082
     204 -> 215        0.07253
     204 -> 222       -0.01641
     204 -> 239       -0.01068
     205 -> 211        0.01577
     205 -> 212       -0.17156
     205 -> 229        0.01014
     206 -> 209       -0.05757
     206 -> 210        0.08609
     207 -> 212       -0.06383
     207 -> 216        0.01040
     207 -> 220        0.01298
     201 <- 208       -0.01964
     202 <- 212       -0.01500
     202 <- 220        0.01411

 Excited state symmetry could not be determined.
 Excited State  23:      Singlet-?Sym    3.4060 eV  364.02 nm  f=0.0057  <S**2>=0.000
     195 -> 208       -0.01582
     200 -> 208       -0.33946
     200 -> 209       -0.01311
     200 -> 219       -0.03339
     200 -> 221       -0.01200
     200 -> 226       -0.01077
     200 -> 229        0.02081
     200 -> 230        0.03272
     200 -> 235       -0.01468
     201 -> 208       -0.06558
     202 -> 212       -0.01088
     203 -> 213       -0.11371
     203 -> 215        0.10880
     203 -> 222       -0.02537
     204 -> 213       -0.26606

 Alpha  occ. eigenvalues --  -24.59990 -19.25673 -19.25657 -14.42597 -14.42578
 Alpha  occ. eigenvalues --  -14.41427 -14.41424 -14.41169 -14.41163 -14.41137
 Alpha  occ. eigenvalues --  -14.41132 -14.37707 -14.37699 -10.32711 -10.32696
 Alpha  occ. eigenvalues --  -10.29900 -10.27741 -10.27707 -10.27657 -10.27653
 Alpha  occ. eigenvalues --  -10.27629 -10.27625 -10.27237 -10.27202 -10.26869
 Alpha  occ. eigenvalues --  -10.26829 -10.26538 -10.26506 -10.26470 -10.26468
 Alpha  occ. eigenvalues --  -10.25989 -10.25984 -10.25979 -10.25969 -10.24748
 Alpha  occ. eigenvalues --  -10.24746 -10.23698 -10.23695 -10.23622 -10.23446
 Alpha  occ. eigenvalues --  -10.23442 -10.23437 -10.23430 -10.23427 -10.23243
 Alpha  occ. eigenvalues --  -10.23243 -10.23241 -10.23233 -10.23068 -10.23065
 Alpha  occ. eigenvalues --  -10.22802 -10.22796 -10.22794 -10.22786 -10.22622
 Alpha  occ. eigenvalues --  -10.22620  -3.13276  -2.89800  -1.95313  -1.94162
 Alpha  occ. eigenvalues --   -1.90565  -1.78213  -1.78174  -1.77103  -1.15868
 Alpha  occ. eigenvalues --   -1.15847  -1.07457  -1.05026  -1.02269  -1.01508
 Alpha  occ. eigenvalues --   -1.01081  -1.01014  -0.99183  -0.98681  -0.98670
 Alpha  occ. eigenvalues --   -0.96580  -0.94746  -0.89619  -0.86515  -0.84858
 Alpha  occ. eigenvalues --   -0.84769  -0.84590  -0.84564  -0.83900  -0.83892
 Alpha  occ. eigenvalues --   -0.83844  -0.83835  -0.79903  -0.79813  -0.78372
 Alpha  occ. eigenvalues --   -0.78316  -0.78307  -0.78094  -0.73317  -0.71880
 Alpha  occ. eigenvalues --   -0.70223  -0.69824  -0.69794  -0.69459  -0.68779
 Alpha  occ. eigenvalues --   -0.68709  -0.67406  -0.65653  -0.65638  -0.65470
 Alpha  occ. eigenvalues --   -0.64499  -0.64388  -0.64382  -0.64258  -0.61603
 Alpha  occ. eigenvalues --   -0.60081  -0.59746  -0.59131  -0.58227  -0.58219
 Alpha  occ. eigenvalues --   -0.57904  -0.57227  -0.55733  -0.54360  -0.54117
 Alpha  occ. eigenvalues --   -0.54090  -0.54040  -0.53995  -0.52515  -0.51886
 Alpha  occ. eigenvalues --   -0.51665  -0.51606  -0.51599  -0.51397  -0.50629
 Alpha  occ. eigenvalues --   -0.50542  -0.50498  -0.50492  -0.49267  -0.49193
 Alpha  occ. eigenvalues --   -0.48622  -0.48591  -0.48398  -0.47955  -0.47895
 Alpha  occ. eigenvalues --   -0.47874  -0.47833  -0.47527  -0.47401  -0.47379
 Alpha  occ. eigenvalues --   -0.47232  -0.47066  -0.46849  -0.46683  -0.46621
 Alpha  occ. eigenvalues --   -0.46270  -0.46045  -0.45860  -0.44827  -0.44531
 Alpha  occ. eigenvalues --   -0.44476  -0.44390  -0.44173  -0.44056  -0.43734
 Alpha  occ. eigenvalues --   -0.43322  -0.43006  -0.42286  -0.41830  -0.41769
 Alpha  occ. eigenvalues --   -0.41704  -0.41267  -0.41051  -0.41034  -0.40245
 Alpha  occ. eigenvalues --   -0.40232  -0.39908  -0.38562  -0.38250  -0.38120
 Alpha  occ. eigenvalues --   -0.38013  -0.37885  -0.35151  -0.34866  -0.34842
 Alpha  occ. eigenvalues --   -0.34510  -0.34260  -0.34126  -0.34070  -0.34000
 Alpha  occ. eigenvalues --   -0.33928  -0.33642  -0.33504  -0.33285  -0.33002
 Alpha  occ. eigenvalues --   -0.32936  -0.32496  -0.32402  -0.32344  -0.28901
 Alpha  occ. eigenvalues --   -0.28677  -0.28318  -0.27748  -0.27613  -0.26375
 Alpha  occ. eigenvalues --   -0.26046  -0.25034  -0.24820  -0.23887  -0.23603
 Alpha  occ. eigenvalues --   -0.23521  -0.23005
 Alpha virt. eigenvalues --   -0.12119  -0.10341  -0.09950  -0.09895  -0.09065
 Alpha virt. eigenvalues --   -0.07867  -0.07257  -0.06408  -0.06392  -0.06046
 Alpha virt. eigenvalues --   -0.05942  -0.05191  -0.03437  -0.02968  -0.02271

 Mulliken charges:
               1
     1  Ru   4.340242
     2  N   -0.359665
     3  N   -0.321485
     4  C    0.131423
     5  C   -0.662738
     6  C   -0.733765
     7  C   -0.613127
     8  C    1.038063
     9  C    0.908830
    10  C   -0.798734
    11  C   -0.658745
    12  C   -0.737176
    13  C    0.158425
    14  H    0.251494
    15  H    0.230898
    16  H    0.232407
    17  H    0.225339
    18  H    0.225323
    19  H    0.231985
    20  H    0.230870
    21  H    0.251739
    22  N   -0.321406
    23  N   -0.358383
    24  C    0.152329
    25  C   -0.736507
    26  C   -0.671011
    27  C   -0.808608
    28  C    0.930569
    29  C    1.049038
    30  C   -0.614537
    31  C   -0.748329
    32  C   -0.657600
    33  C    0.125082
    34  H    0.251622
    35  H    0.230941
    36  H    0.232090
    37  H    0.225573
    38  H    0.225515
    39  H    0.232490
    40  H    0.230859
    41  H    0.251664
    42  N   -0.146271
    43  N   -0.148180
    44  C    0.210566
    45  C   -0.903424
    46  C   -0.542274
    47  C    0.572152
    48  C   -0.338231
    49  C   -0.321783
    50  C    0.565610
    51  C   -0.532009
    52  C   -0.919170
    53  C    0.217331
    54  H    0.253106
    55  H    0.232411
    56  H    0.249303
    57  H    0.249481
    58  H    0.232463
    59  H    0.253228
    60  C    0.194086
    61  C    0.225817
    62  C   -0.068978
    63  C   -0.001052
    64  N   -0.257245
    65  N   -0.257553
    66  C   -0.494985
    67  C   -0.586195
    68  C    0.656019
    69  C    0.575142
    70  C   -0.216612
    71  C   -0.482475
    72  H    0.255109
    73  H    0.252759
    74  H    0.259552
    75  C   -0.527713
    76  H    0.254273
    77  H    0.251481
    78  H    0.273656
    79  H    0.236433
    80  H    0.236359
    81  N   -0.094287
    82  N   -0.102671
    83  Rh   0.358097
    84  F   -0.663771
    85  C    0.143044
    86  C    0.145676
    87  O   -0.270732
    88  O   -0.270533
 Sum of Mulliken charges =   2.00000

 Dipole moment (field-independent basis, Debye):
    X=              5.0666    Y=            -23.0382    Z=            -12.8028  Tot=             26.8392
 Quadrupole moment (field-independent basis, Debye-Ang):
   XX=           -261.8572   YY=           -409.7054   ZZ=           -350.8183
   XY=            -48.6537   XZ=            -34.4204   YZ=            -95.6570

 Normal termination of Gaussian 09 at Wed Jan 22 19:21:55 2014.
