 Gaussian 09, Revision D.01,
 Gaussian 09:  AS64L-G09RevD.01 24-Apr-2013

 ----------------------------------------------------------------------
 #p b3lyp/gen pseudo=read nosymm scf(maxcycle=100,conver=6,xqc) iop(4/5
 =1,9/40=2) EmpiricalDispersion=GD3 scrf(solvent=Acetonitrile) td(nstat
 es=70) geom(allcheck)
 ----------------------------------------------------------------------

 Structure from the checkpoint file:  "RuRh_CH3_CO2Cl_model2_PCM_CH3CN_Opt-TD.chk"
 -----------------------------
 RuRh_CH3_CO2Cl_model2 complex
 -----------------------------
 Charge =  2 Multiplicity = 1

                          Input orientation:
 ---------------------------------------------------------------------
 Center     Atomic      Atomic             Coordinates (Angstroms)
 Number     Number       Type             X           Y           Z
 ---------------------------------------------------------------------
      1         44           0        0.337779   -3.242779   -1.919465
      2          7           0        1.288343   -2.190951   -3.464027
      3          7           0        1.966415   -2.394108   -0.916043
      4          6           0        0.871669   -2.144103   -4.743813
      5          6           0        1.551639   -1.432137   -5.726548
      6          6           0        2.711008   -0.740318   -5.371916
      7          6           0        3.147649   -0.787267   -4.049611
      8          6           0        2.421505   -1.522122   -3.106598
      9          6           0        2.797553   -1.631716   -1.682956
     10          6           0        3.922634   -1.015641   -1.125487
     11          6           0        4.196868   -1.178060    0.230843
     12          6           0        3.336769   -1.957254    1.006280
     13          6           0        2.234757   -2.546472    0.395010
     14          1           0       -0.035471   -2.690887   -4.970842
     15          1           0        1.172962   -1.425236   -6.742790
     16          1           0        3.267723   -0.172242   -6.110186
     17          1           0        4.044632   -0.254163   -3.759423
     18          1           0        4.581254   -0.414538   -1.740093
     19          1           0        5.067602   -0.703599    0.671793
     20          1           0        3.508681   -2.111961    2.065862
     21          1           0        1.542432   -3.163141    0.955230
     22          7           0       -0.876191   -1.670690   -1.258625
     23          7           0       -0.576372   -4.090083   -0.234806
     24          6           0       -0.962503   -0.459428   -1.841117
     25          6           0       -1.794010    0.545518   -1.357513
     26          6           0       -2.566834    0.288610   -0.223885
     27          6           0       -2.478315   -0.961457    0.384951
     28          6           0       -1.622714   -1.931444   -0.147230
     29          6           0       -1.459344   -3.284295    0.421209
     30          6           0       -2.140198   -3.740283    1.554685
     31          6           0       -1.917357   -5.035176    2.018385
     32          6           0       -1.013644   -5.851822    1.336588
     33          6           0       -0.366024   -5.341428    0.216243
     34          1           0       -0.347365   -0.308105   -2.719819
     35          1           0       -1.828571    1.503571   -1.864607
     36          1           0       -3.228504    1.047015    0.181973
     37          1           0       -3.071590   -1.175056    1.265615
     38          1           0       -2.837957   -3.094507    2.073273
     39          1           0       -2.441172   -5.397409    2.897073
     40          1           0       -0.807430   -6.866448    1.659508
     41          1           0        0.348342   -5.935784   -0.340482
     42          7           0       -1.130608   -4.161794   -3.110512
     43          7           0        1.348375   -4.976345   -2.547487
     44          6           0       -2.370302   -3.716210   -3.358047
     45          6           0       -3.271311   -4.422786   -4.162088
     46          6           0       -2.880991   -5.627922   -4.729121
     47          6           0       -1.585568   -6.113351   -4.479207
     48          6           0       -0.739268   -5.347720   -3.658338
     49          6           0        0.609554   -5.786145   -3.358758
     50          6           0        1.113428   -6.990009   -3.880829
     51          6           0        2.430068   -7.355039   -3.550239
     52          6           0        3.175410   -6.521059   -2.728723
     53          6           0        2.602781   -5.339420   -2.245355
     54          1           0       -2.640074   -2.769441   -2.905017
     55          1           0       -4.262563   -4.017093   -4.332130
     56          1           0       -3.553711   -6.198700   -5.359055
     57          1           0        2.842642   -8.278713   -3.939780
     58          1           0        4.194554   -6.768999   -2.452969
     59          1           0        3.155011   -4.669457   -1.596991
     60          6           0       -1.086349   -7.372105   -5.036919
     61          6           0        0.253980   -7.806802   -4.740176
     62          6           0       -1.415158   -9.247087   -6.325473
     63          6           0       -0.064207   -9.685348   -6.025435
     64          7           0        0.735983   -8.939778   -5.230683
     65          7           0       -1.887778   -8.088813   -5.812299
     66          6           0        0.440864  -10.899128   -6.561784
     67          6           0       -2.260162  -10.023415   -7.162521
     68          6           0       -1.733534  -11.189339   -7.664993
     69          6           0       -0.406559  -11.619886   -7.368609
     70          6           0       -1.364175  -13.149092   -8.733369
     71          6           0        1.002706  -13.598322   -8.004959
     72          1           0        1.822240  -13.006581   -8.422378
     73          1           0        1.232188  -13.868431   -6.970523
     74          1           0        0.867530  -14.503712   -8.596971
     75          6           0       -3.629951  -12.095950   -9.039268
     76          1           0       -3.747086  -11.183841   -9.631158
     77          1           0       -3.791645  -12.968571   -9.671437
     78          1           0       -4.350651  -12.096456   -8.216772
     79          1           0       -3.267022   -9.683645   -7.377234
     80          1           0        1.452200  -11.212711   -6.328949
     81          7           0       -2.272783  -12.160951   -8.502555
     82          7           0       -0.234538  -12.822516   -8.045214
     83         45           0       -1.592852  -14.801028   -9.870914
     84          6           0       -2.579429  -15.656525   -8.440324
     85          6           0       -1.269346  -13.753843  -11.469278
     86          8           0       -1.199652  -13.123261  -12.426486
     87          8           0       -3.265677  -16.125157   -7.647643
     88         17           0       -1.680493  -16.864631  -11.202819
 ---------------------------------------------------------------------

 SCF Done:  E(RB3LYP) =  -3018.42653433     A.U. after    1 cycles

 Excitation energies and oscillator strengths:

 Excited state symmetry could not be determined.
 Excited State   1:      Singlet-?Sym    2.4295 eV  510.33 nm  f=0.0006  <S**2>=0.000
     208 -> 212        0.02146
     211 -> 212        0.65878
     211 -> 213       -0.18434
     211 -> 214        0.17125
     211 -> 218        0.02072
     211 -> 222       -0.01179
     211 -> 223        0.02705
 This state for optimization and/or second-order correction.
 Total Energy, E(TD-HF/TD-KS) =  -3018.33725296
 Copying the excited state density for this state as the 1-particle RhoCI density.

 Excited state symmetry could not be determined.
 Excited State   2:      Singlet-?Sym    2.5787 eV  480.81 nm  f=0.0841  <S**2>=0.000
     199 -> 216       -0.01653
     206 -> 216       -0.02393
     208 -> 215       -0.02906
     210 -> 212        0.68765
     210 -> 213       -0.13068
     210 -> 214        0.06830
     210 -> 218        0.01325
     210 -> 223        0.03576
     211 -> 215       -0.02929
     211 -> 216       -0.01536

 Excited state symmetry could not be determined.
 Excited State   3:      Singlet-?Sym    2.6149 eV  474.14 nm  f=0.0014  <S**2>=0.000
     200 -> 212       -0.01149
     208 -> 212        0.66283
     208 -> 213       -0.16545
     208 -> 214        0.15037
     208 -> 218        0.02010
     208 -> 222       -0.01121
     208 -> 223        0.02782
     209 -> 212       -0.02923
     210 -> 215       -0.02049
     211 -> 213        0.02713
     211 -> 214       -0.07807
     211 -> 229        0.01052

 Excited state symmetry could not be determined.
 Excited State   4:      Singlet-?Sym    2.6233 eV  472.63 nm  f=0.0000  <S**2>=0.000
     208 -> 212        0.02754
     209 -> 212        0.69975
     209 -> 213        0.02766
     209 -> 214       -0.01661
     209 -> 218       -0.02087
     209 -> 222        0.01552
     209 -> 223       -0.07540
     209 -> 225        0.02516
     209 -> 228        0.02122
     209 -> 239        0.02265

 Excited state symmetry could not be determined.
 Excited State   5:      Singlet-?Sym    2.6243 eV  472.45 nm  f=0.0014  <S**2>=0.000
     186 -> 214        0.01015
     199 -> 214       -0.01147
     203 -> 215        0.01205
     208 -> 212        0.03273
     210 -> 215       -0.02313
     211 -> 212        0.01828
     211 -> 213        0.51625
     211 -> 214        0.47229
     211 -> 215       -0.05421
     211 -> 218        0.05188
     211 -> 223       -0.01121
     211 -> 229       -0.02145
     211 -> 231        0.01057
     211 -> 275        0.01231
     211 -> 276       -0.01209

 Excited state symmetry could not be determined.
 Excited State   6:      Singlet-?Sym    2.6350 eV  470.52 nm  f=0.0010  <S**2>=0.000
     186 -> 215        0.01316
     191 -> 215       -0.01476
     199 -> 215       -0.01133
     208 -> 212        0.03766
     208 -> 215        0.03657
     208 -> 216       -0.01054
     210 -> 212        0.03114
     210 -> 214       -0.02204
     210 -> 215       -0.01092
     211 -> 212       -0.10929
     211 -> 213       -0.15988
     211 -> 214        0.24700
     211 -> 215        0.62331
     211 -> 216       -0.01449
     211 -> 220       -0.04964
     211 -> 221       -0.02827
     211 -> 223       -0.02221
     211 -> 225       -0.01797
     211 -> 230        0.03724
     211 -> 232       -0.01005
     211 -> 235        0.01036
     211 -> 274        0.01543
     211 -> 278       -0.01019

 Excited state symmetry could not be determined.
 Excited State   7:      Singlet-?Sym    2.6355 eV  470.43 nm  f=0.0017  <S**2>=0.000
     186 -> 214        0.01157
     202 -> 214        0.01260
     208 -> 212        0.06724
     208 -> 213       -0.01442
     208 -> 214       -0.01177
     208 -> 215       -0.01832
     210 -> 212       -0.01495
     210 -> 214        0.01042
     210 -> 215       -0.01504
     210 -> 216       -0.01404
     211 -> 212       -0.22424
     211 -> 213       -0.41124
     211 -> 214        0.41327
     211 -> 215       -0.31048
     211 -> 220        0.02438
     211 -> 221        0.01381
     211 -> 223       -0.04302
     211 -> 225       -0.03482
     211 -> 226        0.01064
     211 -> 229       -0.03223
     211 -> 231        0.01104
     211 -> 281       -0.01061

 Excited state symmetry could not be determined.
 Excited State   8:      Singlet-?Sym    2.8008 eV  442.67 nm  f=0.0003  <S**2>=0.000
     184 -> 214        0.01591
     185 -> 215        0.01669
     201 -> 215        0.01183
     204 -> 215        0.02401
     205 -> 215       -0.03199
     208 -> 212        0.10806
     208 -> 213       -0.04130
     208 -> 214       -0.44902
     208 -> 215        0.01625
     208 -> 218       -0.02650
     208 -> 223        0.02960
     208 -> 225        0.02254
     210 -> 213       -0.02119
     210 -> 215        0.52477
     210 -> 220       -0.04469
     210 -> 221       -0.02681
     210 -> 274        0.01246
     211 -> 213        0.01916

 Excited state symmetry could not be determined.
 Excited State   9:      Singlet-?Sym    2.8173 eV  440.08 nm  f=0.0220  <S**2>=0.000
     185 -> 213        0.01504
     201 -> 213        0.01069
     204 -> 213        0.02230
     204 -> 214        0.01374
     205 -> 212       -0.01423
     205 -> 213       -0.03112
     205 -> 214       -0.01825
     208 -> 213        0.02092
     208 -> 214       -0.01204
     208 -> 215       -0.19980
     208 -> 216        0.01508
     208 -> 220        0.01559
     208 -> 221        0.01479
     210 -> 212        0.07621
     210 -> 213        0.59820
     210 -> 214        0.29465
     210 -> 215        0.02057
     210 -> 218        0.04395
     210 -> 275        0.01028
     210 -> 276       -0.01157
     211 -> 215        0.01979
     211 -> 216        0.02114
     211 -> 229       -0.01396
     211 -> 230       -0.02071

 Excited state symmetry could not be determined.
 Excited State  10:      Singlet-?Sym    2.8316 eV  437.86 nm  f=0.0112  <S**2>=0.000
     184 -> 213       -0.01791
     208 -> 212        0.19154
     208 -> 213        0.63140
     208 -> 214       -0.18790
     208 -> 218        0.02403
     208 -> 223        0.03351
     208 -> 225        0.02823
     210 -> 213       -0.02112
     210 -> 215       -0.15048
     210 -> 220        0.01405
     211 -> 214       -0.02200
     211 -> 222        0.01135
     211 -> 229       -0.02225
     211 -> 230        0.01431

 Excited state symmetry could not be determined.
 Excited State  11:      Singlet-?Sym    2.9284 eV  423.38 nm  f=0.0001  <S**2>=0.000
     198 -> 212       -0.03547
     198 -> 223        0.01535
     204 -> 226       -0.01010
     207 -> 212        0.69910
     207 -> 213        0.02658
     207 -> 214       -0.01589
     207 -> 218       -0.02003
     207 -> 222        0.01496
     207 -> 223       -0.07293
     207 -> 225        0.02514
     207 -> 228        0.02276
     207 -> 239        0.02180

 Excited state symmetry could not be determined.
 Excited State  12:      Singlet-?Sym    2.9310 eV  423.01 nm  f=0.2061  <S**2>=0.000
     184 -> 215       -0.01077
     199 -> 216        0.01129
     201 -> 212        0.01317
     203 -> 222        0.01149
     204 -> 212        0.03513
     205 -> 212       -0.05367
     205 -> 213       -0.01007
     205 -> 214        0.01506
     207 -> 212        0.01215
     208 -> 213       -0.02555
     208 -> 214       -0.06361
     208 -> 215        0.43035
     208 -> 216        0.03444
     208 -> 220       -0.01595
     208 -> 224       -0.01258
     209 -> 217       -0.01227
     210 -> 212        0.12127
     210 -> 213        0.32497
     210 -> 214       -0.39973
     210 -> 215       -0.05621
     210 -> 223        0.02050
     210 -> 225        0.01434
     211 -> 215       -0.04883
     211 -> 216        0.10217
     211 -> 221       -0.01519
     211 -> 224       -0.01415
     211 -> 229        0.02328
     211 -> 230        0.04624
     211 -> 232       -0.01487
     211 -> 235        0.01665
     211 -> 238       -0.01197
     211 -> 243       -0.01184

 Excited state symmetry could not be determined.
 Excited State  13:      Singlet-?Sym    2.9361 eV  422.27 nm  f=0.1299  <S**2>=0.000
     184 -> 214       -0.01191
     202 -> 222       -0.02075
     203 -> 220        0.01115
     203 -> 221       -0.02148
     204 -> 215        0.01628
     205 -> 215       -0.02272
     208 -> 212       -0.02613
     208 -> 213        0.25838
     208 -> 214        0.47725
     208 -> 215        0.05847
     208 -> 222       -0.01076
     208 -> 223       -0.01044
     210 -> 212        0.01464
     210 -> 213        0.03100
     210 -> 214       -0.05577
     210 -> 215        0.43031
     210 -> 216       -0.02168
     210 -> 221       -0.02591
     211 -> 213       -0.01260
     211 -> 214        0.03311
     211 -> 216        0.01432
     211 -> 222        0.03486
     211 -> 229        0.04345
     211 -> 230       -0.02033
     211 -> 231       -0.02484
     211 -> 237       -0.01135
     211 -> 242        0.01063

 Excited state symmetry could not be determined.
 Excited State  14:      Singlet-?Sym    2.9956 eV  413.89 nm  f=0.0152  <S**2>=0.000
     177 -> 212       -0.02365
     177 -> 225        0.01739
     180 -> 216       -0.01023
     181 -> 212        0.01085
     186 -> 223       -0.01238
     191 -> 212        0.01233
     191 -> 223       -0.01375
     195 -> 212       -0.02447
     199 -> 212       -0.03188
     199 -> 213       -0.01210
     199 -> 214        0.01078
     201 -> 216       -0.02453
     201 -> 224       -0.01440
     204 -> 216       -0.04843
     204 -> 224       -0.02529
     204 -> 234        0.01459
     205 -> 216        0.05338
     205 -> 224        0.02577
     205 -> 234       -0.01356
     206 -> 212        0.69483
     206 -> 213        0.01027
     206 -> 223        0.02966
     206 -> 225       -0.02532
     206 -> 228        0.01422
     206 -> 239        0.01929
     209 -> 217       -0.03509
     210 -> 216        0.04061
     206 <- 212       -0.03397
     206 <- 223        0.01221

 Excited state symmetry could not be determined.
 Excited State  15:      Singlet-?Sym    3.0556 eV  405.75 nm  f=0.0424  <S**2>=0.000
     115 -> 217       -0.01008
     134 -> 217       -0.01245
     196 -> 228       -0.01463
     198 -> 217       -0.01577
     198 -> 219       -0.03391
     201 -> 233       -0.02633
     201 -> 234        0.01159
     204 -> 212       -0.01545
     204 -> 233        0.02321
     205 -> 212        0.04543
     205 -> 228        0.01909
     206 -> 212        0.03251
     207 -> 217        0.07519
     207 -> 219        0.12312
     207 -> 226       -0.01333
     208 -> 215       -0.06355
     209 -> 217        0.64477
     209 -> 219        0.16488
     209 -> 225       -0.01626
     209 -> 226       -0.05277
     209 -> 238       -0.01301
     209 -> 240       -0.01161
     209 -> 241        0.01772
     209 -> 242        0.01681
     210 -> 214       -0.05916
     211 -> 216        0.12563
     211 -> 221        0.01386
     211 -> 224       -0.01216
     209 <- 217       -0.02859
     209 <- 226        0.01423

 Excited state symmetry could not be determined.
 Excited State  16:      Singlet-?Sym    3.0617 eV  404.95 nm  f=0.0341  <S**2>=0.000
     178 -> 229        0.01056
     202 -> 221       -0.01148
     203 -> 222       -0.01569
     205 -> 212        0.01397
     206 -> 216        0.01388
     207 -> 217       -0.02485
     207 -> 219       -0.02976
     208 -> 215       -0.32811
     208 -> 216        0.01553
     208 -> 220       -0.01427
     208 -> 221       -0.02010
     208 -> 229       -0.01465
     208 -> 230       -0.02342
     209 -> 217       -0.14498
     209 -> 219       -0.03537
     209 -> 226        0.01079
     210 -> 212        0.02086
     210 -> 213       -0.02050
     210 -> 214       -0.22655
     210 -> 218        0.01928
     210 -> 222       -0.02001
     210 -> 229        0.02494
     210 -> 230       -0.01497
     211 -> 215        0.02422
     211 -> 216        0.54760
     211 -> 220       -0.02841
     211 -> 221        0.07065
     211 -> 224       -0.04977
     211 -> 234        0.02323
     211 -> 263        0.01002

 Excited state symmetry could not be determined.
 Excited State  17:      Singlet-?Sym    3.1802 eV  389.86 nm  f=0.0385  <S**2>=0.000
     197 -> 217       -0.01275
     197 -> 219        0.01704
     198 -> 217       -0.10292
     198 -> 219       -0.02081
     198 -> 225        0.01038
     198 -> 226        0.03372
     201 -> 212        0.02106
     204 -> 212        0.01801
     207 -> 217        0.66564
     207 -> 219        0.11977
     207 -> 225       -0.03286
     207 -> 226       -0.10692
     207 -> 240       -0.01487
     207 -> 241        0.01359
     207 -> 242        0.01689
     207 -> 248        0.01031
     208 -> 215       -0.01127
     209 -> 217       -0.08561
     209 -> 219       -0.07459
     209 -> 226        0.02612

 Excited state symmetry could not be determined.
 Excited State  18:      Singlet-?Sym    3.2350 eV  383.26 nm  f=0.0002  <S**2>=0.000
     155 -> 229        0.01162
     156 -> 230       -0.01092
     178 -> 229        0.01858
     178 -> 230       -0.01210
     179 -> 230       -0.01282
     186 -> 216       -0.01220
     199 -> 216        0.01475
     202 -> 221       -0.01384
     203 -> 222       -0.01974
     205 -> 212        0.01843
     208 -> 215       -0.28985
     208 -> 216        0.40332
     208 -> 220       -0.05815
     208 -> 221       -0.03568
     208 -> 224       -0.04424
     208 -> 230       -0.01171
     208 -> 234        0.01395
     210 -> 212        0.02837
     210 -> 213        0.05725
     210 -> 214       -0.31416
     210 -> 218        0.05746
     210 -> 222       -0.03826
     210 -> 223       -0.02564
     210 -> 225       -0.01236
     211 -> 216       -0.34268
     211 -> 220       -0.05749
     211 -> 221        0.10617
     211 -> 227       -0.02786
     211 -> 234       -0.01920
     208 <- 215        0.01681
     210 <- 214        0.01828

 Excited state symmetry could not be determined.
 Excited State  19:      Singlet-?Sym    3.2895 eV  376.91 nm  f=0.0185  <S**2>=0.000
     193 -> 216       -0.01023
     196 -> 216       -0.01257
     199 -> 212        0.02817
     199 -> 213       -0.05107
     199 -> 214        0.04947
     201 -> 213        0.01001
     201 -> 216        0.02157
     204 -> 216        0.03898
     205 -> 212        0.01502
     205 -> 216       -0.04961
     206 -> 212       -0.03064
     206 -> 213       -0.10606
     206 -> 214        0.08983
     209 -> 219       -0.01014
     210 -> 215        0.01804
     210 -> 216        0.68094
     210 -> 221        0.02413
     210 -> 224       -0.03498
     210 -> 227        0.01013
     210 -> 233        0.01199
     210 -> 234        0.02975

 Excited state symmetry could not be determined.
 Excited State  20:      Singlet-?Sym    3.2985 eV  375.88 nm  f=0.5982  <S**2>=0.000
     177 -> 216       -0.01520
     184 -> 216       -0.01021
     195 -> 224       -0.01149
     196 -> 223        0.01361
     197 -> 226       -0.01001
     201 -> 212       -0.05884
     201 -> 233        0.01222
     203 -> 222        0.01038
     204 -> 212       -0.13005
     204 -> 223       -0.01355
     204 -> 233       -0.01075
     205 -> 212        0.60245
     205 -> 213        0.02051
     205 -> 214       -0.01290
     205 -> 223       -0.01842
     206 -> 215       -0.01942
     206 -> 216       -0.14933
     206 -> 224       -0.05266
     206 -> 234        0.01754
     207 -> 217        0.01044
     207 -> 219       -0.02935
     208 -> 215        0.11528
     208 -> 216        0.21995
     208 -> 220        0.02444
     208 -> 221        0.03139
     208 -> 224       -0.01418
     209 -> 217       -0.04167
     209 -> 219        0.01413
     210 -> 214        0.08229
     210 -> 216       -0.01400
     210 -> 218       -0.03675
     210 -> 222        0.02180
     211 -> 216        0.08490
     211 -> 220        0.02894
     211 -> 221       -0.05185
     204 <- 212        0.01241
     205 <- 212       -0.01291
     206 <- 216       -0.01295
     206 <- 224       -0.01281

 Excited state symmetry could not be determined.
 Excited State  21:      Singlet-?Sym    3.3131 eV  374.23 nm  f=0.0022  <S**2>=0.000
     178 -> 229       -0.01292
     179 -> 230        0.01025
     196 -> 213        0.01211
     201 -> 212        0.02974
     204 -> 212        0.05110
     204 -> 213       -0.01616
     204 -> 214        0.01502
     205 -> 212       -0.25867
     205 -> 213        0.01131
     205 -> 214       -0.01326
     206 -> 216        0.08787
     206 -> 224        0.02536
     206 -> 234       -0.01363
     207 -> 219        0.01386
     208 -> 215        0.15382
     208 -> 216        0.52910
     208 -> 220        0.03955
     208 -> 221        0.04738
     208 -> 224       -0.02074
     208 -> 233        0.01083
     208 -> 234        0.02624
     209 -> 219        0.01168
     210 -> 212       -0.01835
     210 -> 213       -0.08350
     210 -> 214        0.22518
     210 -> 218       -0.04274
     210 -> 222        0.02551
     210 -> 223        0.02141
     210 -> 225        0.01099
     210 -> 229       -0.01804
     210 -> 230        0.01199
     211 -> 215        0.01604
     211 -> 216        0.19677
     211 -> 220        0.04972
     211 -> 221       -0.06326
     211 -> 224        0.01925
     211 -> 227        0.01741
     211 -> 234        0.01433
     210 <- 214       -0.01692

 Excited state symmetry could not be determined.
 Excited State  22:      Singlet-?Sym    3.3208 eV  373.35 nm  f=0.0037  <S**2>=0.000
     200 -> 212       -0.01135
     201 -> 233        0.02444
     204 -> 233       -0.02575
     205 -> 212       -0.02238
     207 -> 217        0.06177
     207 -> 219       -0.01620
     207 -> 226        0.01290
     208 -> 216       -0.01583
     209 -> 217       -0.18257
     209 -> 219        0.65971
     209 -> 225       -0.04190
     209 -> 226       -0.13549
     209 -> 235       -0.01258
     209 -> 238       -0.02757
     209 -> 241        0.04323
     209 -> 242        0.01473
     209 <- 219       -0.01232
     209 <- 226        0.01276

 Excited state symmetry could not be determined.
 Excited State  23:      Singlet-?Sym    3.3217 eV  373.25 nm  f=0.0014  <S**2>=0.000
     187 -> 216       -0.01176
     188 -> 216        0.01829
     188 -> 263       -0.01152
     189 -> 216        0.01336
     197 -> 212       -0.01520
     200 -> 212        0.69963
     200 -> 213        0.04323
     200 -> 214       -0.02720
     200 -> 218       -0.01970
     200 -> 223        0.01684
     200 -> 225       -0.06404
     200 -> 226        0.01984
     201 -> 212        0.01021
     202 -> 212        0.02098
     208 -> 212        0.01338
     209 -> 219        0.01067
     200 <- 212       -0.01794

 Excited state symmetry could not be determined.
 Excited State  24:      Singlet-?Sym    3.3780 eV  367.04 nm  f=0.0000  <S**2>=0.000
     209 -> 212       -0.03363
     209 -> 213        0.67583
     209 -> 214       -0.20421
     209 -> 223       -0.01476

 Excited state symmetry could not be determined.
 Excited State  25:      Singlet-?Sym    3.4926 eV  354.99 nm  f=0.0734  <S**2>=0.000
     177 -> 216        0.01131
     196 -> 212       -0.02619
     198 -> 219        0.01263
     198 -> 226       -0.01183
     201 -> 212       -0.02785
     201 -> 223        0.02577
     201 -> 228       -0.01115
     203 -> 212       -0.01909
     204 -> 212        0.64795
     204 -> 213        0.01843
     204 -> 218       -0.01194
     204 -> 223       -0.04091
     204 -> 225        0.01400
     204 -> 228        0.01506
     205 -> 212        0.18209
     205 -> 216        0.01455
     205 -> 223       -0.02315

 Alpha  occ. eigenvalues -- -101.47737 -19.26102 -19.26085 -14.42721 -14.42713
 Alpha  occ. eigenvalues --  -14.41434 -14.41431 -14.41172 -14.41166 -14.41137
 Alpha  occ. eigenvalues --  -14.41135 -14.37743 -14.37729 -10.33164 -10.33159
 Alpha  occ. eigenvalues --  -10.30151 -10.27756 -10.27722 -10.27661 -10.27658
 Alpha  occ. eigenvalues --  -10.27633 -10.27630 -10.27273 -10.27238 -10.26927
 Alpha  occ. eigenvalues --  -10.26887 -10.26576 -10.26543 -10.26482 -10.26480
 Alpha  occ. eigenvalues --  -10.25994 -10.25990 -10.25983 -10.25976 -10.24766
 Alpha  occ. eigenvalues --  -10.24758 -10.23712 -10.23707 -10.23633 -10.23475
 Alpha  occ. eigenvalues --  -10.23448 -10.23445 -10.23439 -10.23434 -10.23249
 Alpha  occ. eigenvalues --  -10.23247 -10.23246 -10.23238 -10.23078 -10.23075
 Alpha  occ. eigenvalues --  -10.22806 -10.22800 -10.22797 -10.22790 -10.22689
 Alpha  occ. eigenvalues --  -10.22671  -9.40535  -7.16505  -7.16130  -7.16073
 Alpha  occ. eigenvalues --   -3.13117  -2.89808  -1.95425  -1.94019  -1.90216
 Alpha  occ. eigenvalues --   -1.78223  -1.78183  -1.77108  -1.16346  -1.16329
 Alpha  occ. eigenvalues --   -1.07580  -1.02287  -1.01524  -1.01099  -1.01019
 Alpha  occ. eigenvalues --   -0.99193  -0.98686  -0.98675  -0.96675  -0.94782
 Alpha  occ. eigenvalues --   -0.89660  -0.86553  -0.84872  -0.84772  -0.84600
 Alpha  occ. eigenvalues --   -0.84567  -0.83903  -0.83895  -0.83847  -0.83839
 Alpha  occ. eigenvalues --   -0.79934  -0.79858  -0.78407  -0.78321  -0.78311
 Alpha  occ. eigenvalues --   -0.78156  -0.75271  -0.73346  -0.71924  -0.70236
 Alpha  occ. eigenvalues --   -0.69828  -0.69798  -0.69500  -0.68781  -0.68712
 Alpha  occ. eigenvalues --   -0.67433  -0.65661  -0.65642  -0.65497  -0.64535
 Alpha  occ. eigenvalues --   -0.64392  -0.64387  -0.64287  -0.61648  -0.60241
 Alpha  occ. eigenvalues --   -0.60065  -0.59141  -0.58484  -0.58237  -0.57907
 Alpha  occ. eigenvalues --   -0.57259  -0.55757  -0.54381  -0.54121  -0.54094
 Alpha  occ. eigenvalues --   -0.54043  -0.53999  -0.52544  -0.51966  -0.51682
 Alpha  occ. eigenvalues --   -0.51631  -0.51607  -0.51410  -0.51102  -0.50600
 Alpha  occ. eigenvalues --   -0.50521  -0.50501  -0.49294  -0.49203  -0.48667
 Alpha  occ. eigenvalues --   -0.48597  -0.48411  -0.48255  -0.48204  -0.47974
 Alpha  occ. eigenvalues --   -0.47893  -0.47815  -0.47726  -0.47473  -0.47245
 Alpha  occ. eigenvalues --   -0.47158  -0.46858  -0.46698  -0.46628  -0.46280
 Alpha  occ. eigenvalues --   -0.46051  -0.45886  -0.44853  -0.44535  -0.44483
 Alpha  occ. eigenvalues --   -0.44404  -0.44175  -0.44005  -0.43762  -0.43325
 Alpha  occ. eigenvalues --   -0.43013  -0.42307  -0.41870  -0.41752  -0.41491
 Alpha  occ. eigenvalues --   -0.41270  -0.41056  -0.40825  -0.40248  -0.40236
 Alpha  occ. eigenvalues --   -0.39639  -0.38587  -0.38258  -0.38128  -0.38028
 Alpha  occ. eigenvalues --   -0.37893  -0.34872  -0.34870  -0.34521  -0.34434
 Alpha  occ. eigenvalues --   -0.34145  -0.34088  -0.34048  -0.33992  -0.33497
 Alpha  occ. eigenvalues --   -0.33308  -0.32944  -0.32848  -0.32443  -0.32369
 Alpha  occ. eigenvalues --   -0.31580  -0.31143  -0.30199  -0.28707  -0.28347
 Alpha  occ. eigenvalues --   -0.28294  -0.27752  -0.27618  -0.26723  -0.25843
 Alpha  occ. eigenvalues --   -0.25089  -0.24624  -0.23616  -0.23588  -0.23533
 Alpha  occ. eigenvalues --   -0.23007
 Alpha virt. eigenvalues --   -0.12164  -0.10345  -0.09959  -0.09900  -0.09078
 Alpha virt. eigenvalues --   -0.08383  -0.07261  -0.06421  -0.06394  -0.06049
 Alpha virt. eigenvalues --   -0.05946  -0.05243  -0.03458  -0.03000  -0.02991

 Mulliken charges:
               1
     1  Ru   1.209255
     2  N   -0.079283
     3  N   -0.017695
     4  C    0.112143
     5  C   -0.384209
     6  C   -0.542531
     7  C   -0.459891
     8  C    0.760920
     9  C    0.631749
    10  C   -0.526345
    11  C   -0.624618
    12  C   -0.399255
    13  C    0.022677
    14  H    0.250714
    15  H    0.230504
    16  H    0.231243
    17  H    0.225154
    18  H    0.225212
    19  H    0.231352
    20  H    0.230493
    21  H    0.251163
    22  N   -0.021366
    23  N   -0.078880
    24  C    0.024708
    25  C   -0.398712
    26  C   -0.624678
    27  C   -0.526460
    28  C    0.635694
    29  C    0.758649
    30  C   -0.459870
    31  C   -0.542902
    32  C   -0.381681
    33  C    0.109298
    34  H    0.250904
    35  H    0.230538
    36  H    0.231382
    37  H    0.225400
    38  H    0.225268
    39  H    0.231268
    40  H    0.230472
    41  H    0.250863
    42  N    0.327261
    43  N    0.323032
    44  C    0.244006
    45  C   -0.830096
    46  C   -0.596843
    47  C    0.588043
    48  C   -0.369463
    49  C   -0.361770
    50  C    0.583746
    51  C   -0.599299
    52  C   -0.833317
    53  C    0.246017
    54  H    0.252807
    55  H    0.232325
    56  H    0.248604
    57  H    0.248795
    58  H    0.232345
    59  H    0.253098
    60  C    0.057409
    61  C    0.071135
    62  C   -0.001906
    63  C   -0.004137
    64  N   -0.256827
    65  N   -0.257663
    66  C   -0.442492
    67  C   -0.479442
    68  C    0.553918
    69  C    0.521093
    70  C   -0.120679
    71  C   -0.473368
    72  H    0.255370
    73  H    0.253888
    74  H    0.261943
    75  C   -0.519271
    76  H    0.252553
    77  H    0.269892
    78  H    0.253448
    79  H    0.236961
    80  H    0.236794
    81  N   -0.104765
    82  N   -0.102701
    83  Rh   0.048661
    84  C    0.196686
    85  C    0.197967
    86  O   -0.262424
    87  O   -0.261831
    88  Cl  -0.518146
 Sum of Mulliken charges =   2.00000

 Dipole moment (field-independent basis, Debye):
    X=              4.7475    Y=            -21.8456    Z=            -11.9206  Tot=             25.3352
 Quadrupole moment (field-independent basis, Debye-Ang):
   XX=           -268.7286   YY=           -453.8027   ZZ=           -376.6902
   XY=            -45.8755   XZ=            -33.5905   YZ=           -120.3268

 Normal termination of Gaussian 09 at Wed Jan 22 15:56:12 2014.
